Three independent Ar reservoirs with Cu nanoparticles

65478 atoms
7 atom types

-3.61500000 288.61500000 xlo xhi
-47.50000000 47.50000000 ylo yhi
-47.50000000 47.50000000 zlo zhi

Masses

1 39.948  # Ar reservoir 1
2 39.948  # Ar reservoir 2
3 39.948  # Ar reservoir 3
4 63.546  # Cu nanoparticle 1
5 63.546  # Cu nanoparticle 2
6 63.546  # Cu nanoparticle 3
7 63.546  # fixed Cu walls

Atoms # atomic

1 7 -3.61500000 -47.50000000 -47.50000000
2 7 -1.80750000 -45.69250000 -47.50000000
3 7 -1.80750000 -47.50000000 -45.69250000
4 7 -3.61500000 -45.69250000 -45.69250000
5 7 -3.61500000 -47.50000000 -43.88500000
6 7 -1.80750000 -45.69250000 -43.88500000
7 7 -1.80750000 -47.50000000 -42.07750000
8 7 -3.61500000 -45.69250000 -42.07750000
9 7 -3.61500000 -47.50000000 -40.27000000
10 7 -1.80750000 -45.69250000 -40.27000000
11 7 -1.80750000 -47.50000000 -38.46250000
12 7 -3.61500000 -45.69250000 -38.46250000
13 7 -3.61500000 -47.50000000 -36.65500000
14 7 -1.80750000 -45.69250000 -36.65500000
15 7 -1.80750000 -47.50000000 -34.84750000
16 7 -3.61500000 -45.69250000 -34.84750000
17 7 -3.61500000 -47.50000000 -33.04000000
18 7 -1.80750000 -45.69250000 -33.04000000
19 7 -1.80750000 -47.50000000 -31.23250000
20 7 -3.61500000 -45.69250000 -31.23250000
21 7 -3.61500000 -47.50000000 -29.42500000
22 7 -1.80750000 -45.69250000 -29.42500000
23 7 -1.80750000 -47.50000000 -27.61750000
24 7 -3.61500000 -45.69250000 -27.61750000
25 7 -3.61500000 -47.50000000 -25.81000000
26 7 -1.80750000 -45.69250000 -25.81000000
27 7 -1.80750000 -47.50000000 -24.00250000
28 7 -3.61500000 -45.69250000 -24.00250000
29 7 -3.61500000 -47.50000000 -22.19500000
30 7 -1.80750000 -45.69250000 -22.19500000
31 7 -1.80750000 -47.50000000 -20.38750000
32 7 -3.61500000 -45.69250000 -20.38750000
33 7 -3.61500000 -47.50000000 -18.58000000
34 7 -1.80750000 -45.69250000 -18.58000000
35 7 -1.80750000 -47.50000000 -16.77250000
36 7 -3.61500000 -45.69250000 -16.77250000
37 7 -3.61500000 -47.50000000 -14.96500000
38 7 -1.80750000 -45.69250000 -14.96500000
39 7 -1.80750000 -47.50000000 -13.15750000
40 7 -3.61500000 -45.69250000 -13.15750000
41 7 -3.61500000 -47.50000000 -11.35000000
42 7 -1.80750000 -45.69250000 -11.35000000
43 7 -1.80750000 -47.50000000 -9.54250000
44 7 -3.61500000 -45.69250000 -9.54250000
45 7 -3.61500000 -47.50000000 -7.73500000
46 7 -1.80750000 -45.69250000 -7.73500000
47 7 -1.80750000 -47.50000000 -5.92750000
48 7 -3.61500000 -45.69250000 -5.92750000
49 7 -3.61500000 -47.50000000 -4.12000000
50 7 -1.80750000 -45.69250000 -4.12000000
51 7 -1.80750000 -47.50000000 -2.31250000
52 7 -3.61500000 -45.69250000 -2.31250000
53 7 -3.61500000 -47.50000000 -0.50500000
54 7 -1.80750000 -45.69250000 -0.50500000
55 7 -1.80750000 -47.50000000 1.30250000
56 7 -3.61500000 -45.69250000 1.30250000
57 7 -3.61500000 -47.50000000 3.11000000
58 7 -1.80750000 -45.69250000 3.11000000
59 7 -1.80750000 -47.50000000 4.91750000
60 7 -3.61500000 -45.69250000 4.91750000
61 7 -3.61500000 -47.50000000 6.72500000
62 7 -1.80750000 -45.69250000 6.72500000
63 7 -1.80750000 -47.50000000 8.53250000
64 7 -3.61500000 -45.69250000 8.53250000
65 7 -3.61500000 -47.50000000 10.34000000
66 7 -1.80750000 -45.69250000 10.34000000
67 7 -1.80750000 -47.50000000 12.14750000
68 7 -3.61500000 -45.69250000 12.14750000
69 7 -3.61500000 -47.50000000 13.95500000
70 7 -1.80750000 -45.69250000 13.95500000
71 7 -1.80750000 -47.50000000 15.76250000
72 7 -3.61500000 -45.69250000 15.76250000
73 7 -3.61500000 -47.50000000 17.57000000
74 7 -1.80750000 -45.69250000 17.57000000
75 7 -1.80750000 -47.50000000 19.37750000
76 7 -3.61500000 -45.69250000 19.37750000
77 7 -3.61500000 -47.50000000 21.18500000
78 7 -1.80750000 -45.69250000 21.18500000
79 7 -1.80750000 -47.50000000 22.99250000
80 7 -3.61500000 -45.69250000 22.99250000
81 7 -3.61500000 -47.50000000 24.80000000
82 7 -1.80750000 -45.69250000 24.80000000
83 7 -1.80750000 -47.50000000 26.60750000
84 7 -3.61500000 -45.69250000 26.60750000
85 7 -3.61500000 -47.50000000 28.41500000
86 7 -1.80750000 -45.69250000 28.41500000
87 7 -1.80750000 -47.50000000 30.22250000
88 7 -3.61500000 -45.69250000 30.22250000
89 7 -3.61500000 -47.50000000 32.03000000
90 7 -1.80750000 -45.69250000 32.03000000
91 7 -1.80750000 -47.50000000 33.83750000
92 7 -3.61500000 -45.69250000 33.83750000
93 7 -3.61500000 -47.50000000 35.64500000
94 7 -1.80750000 -45.69250000 35.64500000
95 7 -1.80750000 -47.50000000 37.45250000
96 7 -3.61500000 -45.69250000 37.45250000
97 7 -3.61500000 -47.50000000 39.26000000
98 7 -1.80750000 -45.69250000 39.26000000
99 7 -1.80750000 -47.50000000 41.06750000
100 7 -3.61500000 -45.69250000 41.06750000
101 7 -3.61500000 -47.50000000 42.87500000
102 7 -1.80750000 -45.69250000 42.87500000
103 7 -1.80750000 -47.50000000 44.68250000
104 7 -3.61500000 -45.69250000 44.68250000
105 7 -3.61500000 -47.50000000 46.49000000
106 7 -1.80750000 -45.69250000 46.49000000
107 7 -3.61500000 -43.88500000 -47.50000000
108 7 -1.80750000 -42.07750000 -47.50000000
109 7 -1.80750000 -43.88500000 -45.69250000
110 7 -3.61500000 -42.07750000 -45.69250000
111 7 -3.61500000 -43.88500000 -43.88500000
112 7 -1.80750000 -42.07750000 -43.88500000
113 7 -1.80750000 -43.88500000 -42.07750000
114 7 -3.61500000 -42.07750000 -42.07750000
115 7 -3.61500000 -43.88500000 -40.27000000
116 7 -1.80750000 -42.07750000 -40.27000000
117 7 -1.80750000 -43.88500000 -38.46250000
118 7 -3.61500000 -42.07750000 -38.46250000
119 7 -3.61500000 -43.88500000 -36.65500000
120 7 -1.80750000 -42.07750000 -36.65500000
121 7 -1.80750000 -43.88500000 -34.84750000
122 7 -3.61500000 -42.07750000 -34.84750000
123 7 -3.61500000 -43.88500000 -33.04000000
124 7 -1.80750000 -42.07750000 -33.04000000
125 7 -1.80750000 -43.88500000 -31.23250000
126 7 -3.61500000 -42.07750000 -31.23250000
127 7 -3.61500000 -43.88500000 -29.42500000
128 7 -1.80750000 -42.07750000 -29.42500000
129 7 -1.80750000 -43.88500000 -27.61750000
130 7 -3.61500000 -42.07750000 -27.61750000
131 7 -3.61500000 -43.88500000 -25.81000000
132 7 -1.80750000 -42.07750000 -25.81000000
133 7 -1.80750000 -43.88500000 -24.00250000
134 7 -3.61500000 -42.07750000 -24.00250000
135 7 -3.61500000 -43.88500000 -22.19500000
136 7 -1.80750000 -42.07750000 -22.19500000
137 7 -1.80750000 -43.88500000 -20.38750000
138 7 -3.61500000 -42.07750000 -20.38750000
139 7 -3.61500000 -43.88500000 -18.58000000
140 7 -1.80750000 -42.07750000 -18.58000000
141 7 -1.80750000 -43.88500000 -16.77250000
142 7 -3.61500000 -42.07750000 -16.77250000
143 7 -3.61500000 -43.88500000 -14.96500000
144 7 -1.80750000 -42.07750000 -14.96500000
145 7 -1.80750000 -43.88500000 -13.15750000
146 7 -3.61500000 -42.07750000 -13.15750000
147 7 -3.61500000 -43.88500000 -11.35000000
148 7 -1.80750000 -42.07750000 -11.35000000
149 7 -1.80750000 -43.88500000 -9.54250000
150 7 -3.61500000 -42.07750000 -9.54250000
151 7 -3.61500000 -43.88500000 -7.73500000
152 7 -1.80750000 -42.07750000 -7.73500000
153 7 -1.80750000 -43.88500000 -5.92750000
154 7 -3.61500000 -42.07750000 -5.92750000
155 7 -3.61500000 -43.88500000 -4.12000000
156 7 -1.80750000 -42.07750000 -4.12000000
157 7 -1.80750000 -43.88500000 -2.31250000
158 7 -3.61500000 -42.07750000 -2.31250000
159 7 -3.61500000 -43.88500000 -0.50500000
160 7 -1.80750000 -42.07750000 -0.50500000
161 7 -1.80750000 -43.88500000 1.30250000
162 7 -3.61500000 -42.07750000 1.30250000
163 7 -3.61500000 -43.88500000 3.11000000
164 7 -1.80750000 -42.07750000 3.11000000
165 7 -1.80750000 -43.88500000 4.91750000
166 7 -3.61500000 -42.07750000 4.91750000
167 7 -3.61500000 -43.88500000 6.72500000
168 7 -1.80750000 -42.07750000 6.72500000
169 7 -1.80750000 -43.88500000 8.53250000
170 7 -3.61500000 -42.07750000 8.53250000
171 7 -3.61500000 -43.88500000 10.34000000
172 7 -1.80750000 -42.07750000 10.34000000
173 7 -1.80750000 -43.88500000 12.14750000
174 7 -3.61500000 -42.07750000 12.14750000
175 7 -3.61500000 -43.88500000 13.95500000
176 7 -1.80750000 -42.07750000 13.95500000
177 7 -1.80750000 -43.88500000 15.76250000
178 7 -3.61500000 -42.07750000 15.76250000
179 7 -3.61500000 -43.88500000 17.57000000
180 7 -1.80750000 -42.07750000 17.57000000
181 7 -1.80750000 -43.88500000 19.37750000
182 7 -3.61500000 -42.07750000 19.37750000
183 7 -3.61500000 -43.88500000 21.18500000
184 7 -1.80750000 -42.07750000 21.18500000
185 7 -1.80750000 -43.88500000 22.99250000
186 7 -3.61500000 -42.07750000 22.99250000
187 7 -3.61500000 -43.88500000 24.80000000
188 7 -1.80750000 -42.07750000 24.80000000
189 7 -1.80750000 -43.88500000 26.60750000
190 7 -3.61500000 -42.07750000 26.60750000
191 7 -3.61500000 -43.88500000 28.41500000
192 7 -1.80750000 -42.07750000 28.41500000
193 7 -1.80750000 -43.88500000 30.22250000
194 7 -3.61500000 -42.07750000 30.22250000
195 7 -3.61500000 -43.88500000 32.03000000
196 7 -1.80750000 -42.07750000 32.03000000
197 7 -1.80750000 -43.88500000 33.83750000
198 7 -3.61500000 -42.07750000 33.83750000
199 7 -3.61500000 -43.88500000 35.64500000
200 7 -1.80750000 -42.07750000 35.64500000
201 7 -1.80750000 -43.88500000 37.45250000
202 7 -3.61500000 -42.07750000 37.45250000
203 7 -3.61500000 -43.88500000 39.26000000
204 7 -1.80750000 -42.07750000 39.26000000
205 7 -1.80750000 -43.88500000 41.06750000
206 7 -3.61500000 -42.07750000 41.06750000
207 7 -3.61500000 -43.88500000 42.87500000
208 7 -1.80750000 -42.07750000 42.87500000
209 7 -1.80750000 -43.88500000 44.68250000
210 7 -3.61500000 -42.07750000 44.68250000
211 7 -3.61500000 -43.88500000 46.49000000
212 7 -1.80750000 -42.07750000 46.49000000
213 7 -3.61500000 -40.27000000 -47.50000000
214 7 -1.80750000 -38.46250000 -47.50000000
215 7 -1.80750000 -40.27000000 -45.69250000
216 7 -3.61500000 -38.46250000 -45.69250000
217 7 -3.61500000 -40.27000000 -43.88500000
218 7 -1.80750000 -38.46250000 -43.88500000
219 7 -1.80750000 -40.27000000 -42.07750000
220 7 -3.61500000 -38.46250000 -42.07750000
221 7 -3.61500000 -40.27000000 -40.27000000
222 7 -1.80750000 -38.46250000 -40.27000000
223 7 -1.80750000 -40.27000000 -38.46250000
224 7 -3.61500000 -38.46250000 -38.46250000
225 7 -3.61500000 -40.27000000 -36.65500000
226 7 -1.80750000 -38.46250000 -36.65500000
227 7 -1.80750000 -40.27000000 -34.84750000
228 7 -3.61500000 -38.46250000 -34.84750000
229 7 -3.61500000 -40.27000000 -33.04000000
230 7 -1.80750000 -38.46250000 -33.04000000
231 7 -1.80750000 -40.27000000 -31.23250000
232 7 -3.61500000 -38.46250000 -31.23250000
233 7 -3.61500000 -40.27000000 -29.42500000
234 7 -1.80750000 -38.46250000 -29.42500000
235 7 -1.80750000 -40.27000000 -27.61750000
236 7 -3.61500000 -38.46250000 -27.61750000
237 7 -3.61500000 -40.27000000 -25.81000000
238 7 -1.80750000 -38.46250000 -25.81000000
239 7 -1.80750000 -40.27000000 -24.00250000
240 7 -3.61500000 -38.46250000 -24.00250000
241 7 -3.61500000 -40.27000000 -22.19500000
242 7 -1.80750000 -38.46250000 -22.19500000
243 7 -1.80750000 -40.27000000 -20.38750000
244 7 -3.61500000 -38.46250000 -20.38750000
245 7 -3.61500000 -40.27000000 -18.58000000
246 7 -1.80750000 -38.46250000 -18.58000000
247 7 -1.80750000 -40.27000000 -16.77250000
248 7 -3.61500000 -38.46250000 -16.77250000
249 7 -3.61500000 -40.27000000 -14.96500000
250 7 -1.80750000 -38.46250000 -14.96500000
251 7 -1.80750000 -40.27000000 -13.15750000
252 7 -3.61500000 -38.46250000 -13.15750000
253 7 -3.61500000 -40.27000000 -11.35000000
254 7 -1.80750000 -38.46250000 -11.35000000
255 7 -1.80750000 -40.27000000 -9.54250000
256 7 -3.61500000 -38.46250000 -9.54250000
257 7 -3.61500000 -40.27000000 -7.73500000
258 7 -1.80750000 -38.46250000 -7.73500000
259 7 -1.80750000 -40.27000000 -5.92750000
260 7 -3.61500000 -38.46250000 -5.92750000
261 7 -3.61500000 -40.27000000 -4.12000000
262 7 -1.80750000 -38.46250000 -4.12000000
263 7 -1.80750000 -40.27000000 -2.31250000
264 7 -3.61500000 -38.46250000 -2.31250000
265 7 -3.61500000 -40.27000000 -0.50500000
266 7 -1.80750000 -38.46250000 -0.50500000
267 7 -1.80750000 -40.27000000 1.30250000
268 7 -3.61500000 -38.46250000 1.30250000
269 7 -3.61500000 -40.27000000 3.11000000
270 7 -1.80750000 -38.46250000 3.11000000
271 7 -1.80750000 -40.27000000 4.91750000
272 7 -3.61500000 -38.46250000 4.91750000
273 7 -3.61500000 -40.27000000 6.72500000
274 7 -1.80750000 -38.46250000 6.72500000
275 7 -1.80750000 -40.27000000 8.53250000
276 7 -3.61500000 -38.46250000 8.53250000
277 7 -3.61500000 -40.27000000 10.34000000
278 7 -1.80750000 -38.46250000 10.34000000
279 7 -1.80750000 -40.27000000 12.14750000
280 7 -3.61500000 -38.46250000 12.14750000
281 7 -3.61500000 -40.27000000 13.95500000
282 7 -1.80750000 -38.46250000 13.95500000
283 7 -1.80750000 -40.27000000 15.76250000
284 7 -3.61500000 -38.46250000 15.76250000
285 7 -3.61500000 -40.27000000 17.57000000
286 7 -1.80750000 -38.46250000 17.57000000
287 7 -1.80750000 -40.27000000 19.37750000
288 7 -3.61500000 -38.46250000 19.37750000
289 7 -3.61500000 -40.27000000 21.18500000
290 7 -1.80750000 -38.46250000 21.18500000
291 7 -1.80750000 -40.27000000 22.99250000
292 7 -3.61500000 -38.46250000 22.99250000
293 7 -3.61500000 -40.27000000 24.80000000
294 7 -1.80750000 -38.46250000 24.80000000
295 7 -1.80750000 -40.27000000 26.60750000
296 7 -3.61500000 -38.46250000 26.60750000
297 7 -3.61500000 -40.27000000 28.41500000
298 7 -1.80750000 -38.46250000 28.41500000
299 7 -1.80750000 -40.27000000 30.22250000
300 7 -3.61500000 -38.46250000 30.22250000
301 7 -3.61500000 -40.27000000 32.03000000
302 7 -1.80750000 -38.46250000 32.03000000
303 7 -1.80750000 -40.27000000 33.83750000
304 7 -3.61500000 -38.46250000 33.83750000
305 7 -3.61500000 -40.27000000 35.64500000
306 7 -1.80750000 -38.46250000 35.64500000
307 7 -1.80750000 -40.27000000 37.45250000
308 7 -3.61500000 -38.46250000 37.45250000
309 7 -3.61500000 -40.27000000 39.26000000
310 7 -1.80750000 -38.46250000 39.26000000
311 7 -1.80750000 -40.27000000 41.06750000
312 7 -3.61500000 -38.46250000 41.06750000
313 7 -3.61500000 -40.27000000 42.87500000
314 7 -1.80750000 -38.46250000 42.87500000
315 7 -1.80750000 -40.27000000 44.68250000
316 7 -3.61500000 -38.46250000 44.68250000
317 7 -3.61500000 -40.27000000 46.49000000
318 7 -1.80750000 -38.46250000 46.49000000
319 7 -3.61500000 -36.65500000 -47.50000000
320 7 -1.80750000 -34.84750000 -47.50000000
321 7 -1.80750000 -36.65500000 -45.69250000
322 7 -3.61500000 -34.84750000 -45.69250000
323 7 -3.61500000 -36.65500000 -43.88500000
324 7 -1.80750000 -34.84750000 -43.88500000
325 7 -1.80750000 -36.65500000 -42.07750000
326 7 -3.61500000 -34.84750000 -42.07750000
327 7 -3.61500000 -36.65500000 -40.27000000
328 7 -1.80750000 -34.84750000 -40.27000000
329 7 -1.80750000 -36.65500000 -38.46250000
330 7 -3.61500000 -34.84750000 -38.46250000
331 7 -3.61500000 -36.65500000 -36.65500000
332 7 -1.80750000 -34.84750000 -36.65500000
333 7 -1.80750000 -36.65500000 -34.84750000
334 7 -3.61500000 -34.84750000 -34.84750000
335 7 -3.61500000 -36.65500000 -33.04000000
336 7 -1.80750000 -34.84750000 -33.04000000
337 7 -1.80750000 -36.65500000 -31.23250000
338 7 -3.61500000 -34.84750000 -31.23250000
339 7 -3.61500000 -36.65500000 -29.42500000
340 7 -1.80750000 -34.84750000 -29.42500000
341 7 -1.80750000 -36.65500000 -27.61750000
342 7 -3.61500000 -34.84750000 -27.61750000
343 7 -3.61500000 -36.65500000 -25.81000000
344 7 -1.80750000 -34.84750000 -25.81000000
345 7 -1.80750000 -36.65500000 -24.00250000
346 7 -3.61500000 -34.84750000 -24.00250000
347 7 -3.61500000 -36.65500000 -22.19500000
348 7 -1.80750000 -34.84750000 -22.19500000
349 7 -1.80750000 -36.65500000 -20.38750000
350 7 -3.61500000 -34.84750000 -20.38750000
351 7 -3.61500000 -36.65500000 -18.58000000
352 7 -1.80750000 -34.84750000 -18.58000000
353 7 -1.80750000 -36.65500000 -16.77250000
354 7 -3.61500000 -34.84750000 -16.77250000
355 7 -3.61500000 -36.65500000 -14.96500000
356 7 -1.80750000 -34.84750000 -14.96500000
357 7 -1.80750000 -36.65500000 -13.15750000
358 7 -3.61500000 -34.84750000 -13.15750000
359 7 -3.61500000 -36.65500000 -11.35000000
360 7 -1.80750000 -34.84750000 -11.35000000
361 7 -1.80750000 -36.65500000 -9.54250000
362 7 -3.61500000 -34.84750000 -9.54250000
363 7 -3.61500000 -36.65500000 -7.73500000
364 7 -1.80750000 -34.84750000 -7.73500000
365 7 -1.80750000 -36.65500000 -5.92750000
366 7 -3.61500000 -34.84750000 -5.92750000
367 7 -3.61500000 -36.65500000 -4.12000000
368 7 -1.80750000 -34.84750000 -4.12000000
369 7 -1.80750000 -36.65500000 -2.31250000
370 7 -3.61500000 -34.84750000 -2.31250000
371 7 -3.61500000 -36.65500000 -0.50500000
372 7 -1.80750000 -34.84750000 -0.50500000
373 7 -1.80750000 -36.65500000 1.30250000
374 7 -3.61500000 -34.84750000 1.30250000
375 7 -3.61500000 -36.65500000 3.11000000
376 7 -1.80750000 -34.84750000 3.11000000
377 7 -1.80750000 -36.65500000 4.91750000
378 7 -3.61500000 -34.84750000 4.91750000
379 7 -3.61500000 -36.65500000 6.72500000
380 7 -1.80750000 -34.84750000 6.72500000
381 7 -1.80750000 -36.65500000 8.53250000
382 7 -3.61500000 -34.84750000 8.53250000
383 7 -3.61500000 -36.65500000 10.34000000
384 7 -1.80750000 -34.84750000 10.34000000
385 7 -1.80750000 -36.65500000 12.14750000
386 7 -3.61500000 -34.84750000 12.14750000
387 7 -3.61500000 -36.65500000 13.95500000
388 7 -1.80750000 -34.84750000 13.95500000
389 7 -1.80750000 -36.65500000 15.76250000
390 7 -3.61500000 -34.84750000 15.76250000
391 7 -3.61500000 -36.65500000 17.57000000
392 7 -1.80750000 -34.84750000 17.57000000
393 7 -1.80750000 -36.65500000 19.37750000
394 7 -3.61500000 -34.84750000 19.37750000
395 7 -3.61500000 -36.65500000 21.18500000
396 7 -1.80750000 -34.84750000 21.18500000
397 7 -1.80750000 -36.65500000 22.99250000
398 7 -3.61500000 -34.84750000 22.99250000
399 7 -3.61500000 -36.65500000 24.80000000
400 7 -1.80750000 -34.84750000 24.80000000
401 7 -1.80750000 -36.65500000 26.60750000
402 7 -3.61500000 -34.84750000 26.60750000
403 7 -3.61500000 -36.65500000 28.41500000
404 7 -1.80750000 -34.84750000 28.41500000
405 7 -1.80750000 -36.65500000 30.22250000
406 7 -3.61500000 -34.84750000 30.22250000
407 7 -3.61500000 -36.65500000 32.03000000
408 7 -1.80750000 -34.84750000 32.03000000
409 7 -1.80750000 -36.65500000 33.83750000
410 7 -3.61500000 -34.84750000 33.83750000
411 7 -3.61500000 -36.65500000 35.64500000
412 7 -1.80750000 -34.84750000 35.64500000
413 7 -1.80750000 -36.65500000 37.45250000
414 7 -3.61500000 -34.84750000 37.45250000
415 7 -3.61500000 -36.65500000 39.26000000
416 7 -1.80750000 -34.84750000 39.26000000
417 7 -1.80750000 -36.65500000 41.06750000
418 7 -3.61500000 -34.84750000 41.06750000
419 7 -3.61500000 -36.65500000 42.87500000
420 7 -1.80750000 -34.84750000 42.87500000
421 7 -1.80750000 -36.65500000 44.68250000
422 7 -3.61500000 -34.84750000 44.68250000
423 7 -3.61500000 -36.65500000 46.49000000
424 7 -1.80750000 -34.84750000 46.49000000
425 7 -3.61500000 -33.04000000 -47.50000000
426 7 -1.80750000 -31.23250000 -47.50000000
427 7 -1.80750000 -33.04000000 -45.69250000
428 7 -3.61500000 -31.23250000 -45.69250000
429 7 -3.61500000 -33.04000000 -43.88500000
430 7 -1.80750000 -31.23250000 -43.88500000
431 7 -1.80750000 -33.04000000 -42.07750000
432 7 -3.61500000 -31.23250000 -42.07750000
433 7 -3.61500000 -33.04000000 -40.27000000
434 7 -1.80750000 -31.23250000 -40.27000000
435 7 -1.80750000 -33.04000000 -38.46250000
436 7 -3.61500000 -31.23250000 -38.46250000
437 7 -3.61500000 -33.04000000 -36.65500000
438 7 -1.80750000 -31.23250000 -36.65500000
439 7 -1.80750000 -33.04000000 -34.84750000
440 7 -3.61500000 -31.23250000 -34.84750000
441 7 -3.61500000 -33.04000000 -33.04000000
442 7 -1.80750000 -31.23250000 -33.04000000
443 7 -1.80750000 -33.04000000 -31.23250000
444 7 -3.61500000 -31.23250000 -31.23250000
445 7 -3.61500000 -33.04000000 -29.42500000
446 7 -1.80750000 -31.23250000 -29.42500000
447 7 -1.80750000 -33.04000000 -27.61750000
448 7 -3.61500000 -31.23250000 -27.61750000
449 7 -3.61500000 -33.04000000 -25.81000000
450 7 -1.80750000 -31.23250000 -25.81000000
451 7 -1.80750000 -33.04000000 -24.00250000
452 7 -3.61500000 -31.23250000 -24.00250000
453 7 -3.61500000 -33.04000000 -22.19500000
454 7 -1.80750000 -31.23250000 -22.19500000
455 7 -1.80750000 -33.04000000 -20.38750000
456 7 -3.61500000 -31.23250000 -20.38750000
457 7 -3.61500000 -33.04000000 -18.58000000
458 7 -1.80750000 -31.23250000 -18.58000000
459 7 -1.80750000 -33.04000000 -16.77250000
460 7 -3.61500000 -31.23250000 -16.77250000
461 7 -3.61500000 -33.04000000 -14.96500000
462 7 -1.80750000 -31.23250000 -14.96500000
463 7 -1.80750000 -33.04000000 -13.15750000
464 7 -3.61500000 -31.23250000 -13.15750000
465 7 -3.61500000 -33.04000000 -11.35000000
466 7 -1.80750000 -31.23250000 -11.35000000
467 7 -1.80750000 -33.04000000 -9.54250000
468 7 -3.61500000 -31.23250000 -9.54250000
469 7 -3.61500000 -33.04000000 -7.73500000
470 7 -1.80750000 -31.23250000 -7.73500000
471 7 -1.80750000 -33.04000000 -5.92750000
472 7 -3.61500000 -31.23250000 -5.92750000
473 7 -3.61500000 -33.04000000 -4.12000000
474 7 -1.80750000 -31.23250000 -4.12000000
475 7 -1.80750000 -33.04000000 -2.31250000
476 7 -3.61500000 -31.23250000 -2.31250000
477 7 -3.61500000 -33.04000000 -0.50500000
478 7 -1.80750000 -31.23250000 -0.50500000
479 7 -1.80750000 -33.04000000 1.30250000
480 7 -3.61500000 -31.23250000 1.30250000
481 7 -3.61500000 -33.04000000 3.11000000
482 7 -1.80750000 -31.23250000 3.11000000
483 7 -1.80750000 -33.04000000 4.91750000
484 7 -3.61500000 -31.23250000 4.91750000
485 7 -3.61500000 -33.04000000 6.72500000
486 7 -1.80750000 -31.23250000 6.72500000
487 7 -1.80750000 -33.04000000 8.53250000
488 7 -3.61500000 -31.23250000 8.53250000
489 7 -3.61500000 -33.04000000 10.34000000
490 7 -1.80750000 -31.23250000 10.34000000
491 7 -1.80750000 -33.04000000 12.14750000
492 7 -3.61500000 -31.23250000 12.14750000
493 7 -3.61500000 -33.04000000 13.95500000
494 7 -1.80750000 -31.23250000 13.95500000
495 7 -1.80750000 -33.04000000 15.76250000
496 7 -3.61500000 -31.23250000 15.76250000
497 7 -3.61500000 -33.04000000 17.57000000
498 7 -1.80750000 -31.23250000 17.57000000
499 7 -1.80750000 -33.04000000 19.37750000
500 7 -3.61500000 -31.23250000 19.37750000
501 7 -3.61500000 -33.04000000 21.18500000
502 7 -1.80750000 -31.23250000 21.18500000
503 7 -1.80750000 -33.04000000 22.99250000
504 7 -3.61500000 -31.23250000 22.99250000
505 7 -3.61500000 -33.04000000 24.80000000
506 7 -1.80750000 -31.23250000 24.80000000
507 7 -1.80750000 -33.04000000 26.60750000
508 7 -3.61500000 -31.23250000 26.60750000
509 7 -3.61500000 -33.04000000 28.41500000
510 7 -1.80750000 -31.23250000 28.41500000
511 7 -1.80750000 -33.04000000 30.22250000
512 7 -3.61500000 -31.23250000 30.22250000
513 7 -3.61500000 -33.04000000 32.03000000
514 7 -1.80750000 -31.23250000 32.03000000
515 7 -1.80750000 -33.04000000 33.83750000
516 7 -3.61500000 -31.23250000 33.83750000
517 7 -3.61500000 -33.04000000 35.64500000
518 7 -1.80750000 -31.23250000 35.64500000
519 7 -1.80750000 -33.04000000 37.45250000
520 7 -3.61500000 -31.23250000 37.45250000
521 7 -3.61500000 -33.04000000 39.26000000
522 7 -1.80750000 -31.23250000 39.26000000
523 7 -1.80750000 -33.04000000 41.06750000
524 7 -3.61500000 -31.23250000 41.06750000
525 7 -3.61500000 -33.04000000 42.87500000
526 7 -1.80750000 -31.23250000 42.87500000
527 7 -1.80750000 -33.04000000 44.68250000
528 7 -3.61500000 -31.23250000 44.68250000
529 7 -3.61500000 -33.04000000 46.49000000
530 7 -1.80750000 -31.23250000 46.49000000
531 7 -3.61500000 -29.42500000 -47.50000000
532 7 -1.80750000 -27.61750000 -47.50000000
533 7 -1.80750000 -29.42500000 -45.69250000
534 7 -3.61500000 -27.61750000 -45.69250000
535 7 -3.61500000 -29.42500000 -43.88500000
536 7 -1.80750000 -27.61750000 -43.88500000
537 7 -1.80750000 -29.42500000 -42.07750000
538 7 -3.61500000 -27.61750000 -42.07750000
539 7 -3.61500000 -29.42500000 -40.27000000
540 7 -1.80750000 -27.61750000 -40.27000000
541 7 -1.80750000 -29.42500000 -38.46250000
542 7 -3.61500000 -27.61750000 -38.46250000
543 7 -3.61500000 -29.42500000 -36.65500000
544 7 -1.80750000 -27.61750000 -36.65500000
545 7 -1.80750000 -29.42500000 -34.84750000
546 7 -3.61500000 -27.61750000 -34.84750000
547 7 -3.61500000 -29.42500000 -33.04000000
548 7 -1.80750000 -27.61750000 -33.04000000
549 7 -1.80750000 -29.42500000 -31.23250000
550 7 -3.61500000 -27.61750000 -31.23250000
551 7 -3.61500000 -29.42500000 -29.42500000
552 7 -1.80750000 -27.61750000 -29.42500000
553 7 -1.80750000 -29.42500000 -27.61750000
554 7 -3.61500000 -27.61750000 -27.61750000
555 7 -3.61500000 -29.42500000 -25.81000000
556 7 -1.80750000 -27.61750000 -25.81000000
557 7 -1.80750000 -29.42500000 -24.00250000
558 7 -3.61500000 -27.61750000 -24.00250000
559 7 -3.61500000 -29.42500000 -22.19500000
560 7 -1.80750000 -27.61750000 -22.19500000
561 7 -1.80750000 -29.42500000 -20.38750000
562 7 -3.61500000 -27.61750000 -20.38750000
563 7 -3.61500000 -29.42500000 -18.58000000
564 7 -1.80750000 -27.61750000 -18.58000000
565 7 -1.80750000 -29.42500000 -16.77250000
566 7 -3.61500000 -27.61750000 -16.77250000
567 7 -3.61500000 -29.42500000 -14.96500000
568 7 -1.80750000 -27.61750000 -14.96500000
569 7 -1.80750000 -29.42500000 -13.15750000
570 7 -3.61500000 -27.61750000 -13.15750000
571 7 -3.61500000 -29.42500000 -11.35000000
572 7 -1.80750000 -27.61750000 -11.35000000
573 7 -1.80750000 -29.42500000 -9.54250000
574 7 -3.61500000 -27.61750000 -9.54250000
575 7 -3.61500000 -29.42500000 -7.73500000
576 7 -1.80750000 -27.61750000 -7.73500000
577 7 -1.80750000 -29.42500000 -5.92750000
578 7 -3.61500000 -27.61750000 -5.92750000
579 7 -3.61500000 -29.42500000 -4.12000000
580 7 -1.80750000 -27.61750000 -4.12000000
581 7 -1.80750000 -29.42500000 -2.31250000
582 7 -3.61500000 -27.61750000 -2.31250000
583 7 -3.61500000 -29.42500000 -0.50500000
584 7 -1.80750000 -27.61750000 -0.50500000
585 7 -1.80750000 -29.42500000 1.30250000
586 7 -3.61500000 -27.61750000 1.30250000
587 7 -3.61500000 -29.42500000 3.11000000
588 7 -1.80750000 -27.61750000 3.11000000
589 7 -1.80750000 -29.42500000 4.91750000
590 7 -3.61500000 -27.61750000 4.91750000
591 7 -3.61500000 -29.42500000 6.72500000
592 7 -1.80750000 -27.61750000 6.72500000
593 7 -1.80750000 -29.42500000 8.53250000
594 7 -3.61500000 -27.61750000 8.53250000
595 7 -3.61500000 -29.42500000 10.34000000
596 7 -1.80750000 -27.61750000 10.34000000
597 7 -1.80750000 -29.42500000 12.14750000
598 7 -3.61500000 -27.61750000 12.14750000
599 7 -3.61500000 -29.42500000 13.95500000
600 7 -1.80750000 -27.61750000 13.95500000
601 7 -1.80750000 -29.42500000 15.76250000
602 7 -3.61500000 -27.61750000 15.76250000
603 7 -3.61500000 -29.42500000 17.57000000
604 7 -1.80750000 -27.61750000 17.57000000
605 7 -1.80750000 -29.42500000 19.37750000
606 7 -3.61500000 -27.61750000 19.37750000
607 7 -3.61500000 -29.42500000 21.18500000
608 7 -1.80750000 -27.61750000 21.18500000
609 7 -1.80750000 -29.42500000 22.99250000
610 7 -3.61500000 -27.61750000 22.99250000
611 7 -3.61500000 -29.42500000 24.80000000
612 7 -1.80750000 -27.61750000 24.80000000
613 7 -1.80750000 -29.42500000 26.60750000
614 7 -3.61500000 -27.61750000 26.60750000
615 7 -3.61500000 -29.42500000 28.41500000
616 7 -1.80750000 -27.61750000 28.41500000
617 7 -1.80750000 -29.42500000 30.22250000
618 7 -3.61500000 -27.61750000 30.22250000
619 7 -3.61500000 -29.42500000 32.03000000
620 7 -1.80750000 -27.61750000 32.03000000
621 7 -1.80750000 -29.42500000 33.83750000
622 7 -3.61500000 -27.61750000 33.83750000
623 7 -3.61500000 -29.42500000 35.64500000
624 7 -1.80750000 -27.61750000 35.64500000
625 7 -1.80750000 -29.42500000 37.45250000
626 7 -3.61500000 -27.61750000 37.45250000
627 7 -3.61500000 -29.42500000 39.26000000
628 7 -1.80750000 -27.61750000 39.26000000
629 7 -1.80750000 -29.42500000 41.06750000
630 7 -3.61500000 -27.61750000 41.06750000
631 7 -3.61500000 -29.42500000 42.87500000
632 7 -1.80750000 -27.61750000 42.87500000
633 7 -1.80750000 -29.42500000 44.68250000
634 7 -3.61500000 -27.61750000 44.68250000
635 7 -3.61500000 -29.42500000 46.49000000
636 7 -1.80750000 -27.61750000 46.49000000
637 7 -3.61500000 -25.81000000 -47.50000000
638 7 -1.80750000 -24.00250000 -47.50000000
639 7 -1.80750000 -25.81000000 -45.69250000
640 7 -3.61500000 -24.00250000 -45.69250000
641 7 -3.61500000 -25.81000000 -43.88500000
642 7 -1.80750000 -24.00250000 -43.88500000
643 7 -1.80750000 -25.81000000 -42.07750000
644 7 -3.61500000 -24.00250000 -42.07750000
645 7 -3.61500000 -25.81000000 -40.27000000
646 7 -1.80750000 -24.00250000 -40.27000000
647 7 -1.80750000 -25.81000000 -38.46250000
648 7 -3.61500000 -24.00250000 -38.46250000
649 7 -3.61500000 -25.81000000 -36.65500000
650 7 -1.80750000 -24.00250000 -36.65500000
651 7 -1.80750000 -25.81000000 -34.84750000
652 7 -3.61500000 -24.00250000 -34.84750000
653 7 -3.61500000 -25.81000000 -33.04000000
654 7 -1.80750000 -24.00250000 -33.04000000
655 7 -1.80750000 -25.81000000 -31.23250000
656 7 -3.61500000 -24.00250000 -31.23250000
657 7 -3.61500000 -25.81000000 -29.42500000
658 7 -1.80750000 -24.00250000 -29.42500000
659 7 -1.80750000 -25.81000000 -27.61750000
660 7 -3.61500000 -24.00250000 -27.61750000
661 7 -3.61500000 -25.81000000 -25.81000000
662 7 -1.80750000 -24.00250000 -25.81000000
663 7 -1.80750000 -25.81000000 -24.00250000
664 7 -3.61500000 -24.00250000 -24.00250000
665 7 -3.61500000 -25.81000000 -22.19500000
666 7 -1.80750000 -24.00250000 -22.19500000
667 7 -1.80750000 -25.81000000 -20.38750000
668 7 -3.61500000 -24.00250000 -20.38750000
669 7 -3.61500000 -25.81000000 -18.58000000
670 7 -1.80750000 -24.00250000 -18.58000000
671 7 -1.80750000 -25.81000000 -16.77250000
672 7 -3.61500000 -24.00250000 -16.77250000
673 7 -3.61500000 -25.81000000 -14.96500000
674 7 -1.80750000 -24.00250000 -14.96500000
675 7 -1.80750000 -25.81000000 -13.15750000
676 7 -3.61500000 -24.00250000 -13.15750000
677 7 -3.61500000 -25.81000000 -11.35000000
678 7 -1.80750000 -24.00250000 -11.35000000
679 7 -1.80750000 -25.81000000 -9.54250000
680 7 -3.61500000 -24.00250000 -9.54250000
681 7 -3.61500000 -25.81000000 -7.73500000
682 7 -1.80750000 -24.00250000 -7.73500000
683 7 -1.80750000 -25.81000000 -5.92750000
684 7 -3.61500000 -24.00250000 -5.92750000
685 7 -3.61500000 -25.81000000 -4.12000000